<?xml version="1.0" encoding="UTF-8"?>

<!-- generated on 2022-08-15 21:11:11 by Eclipse SUMO GUI Version 1.13.0
<configuration xmlns:xsi="http://www.w3.org/2001/XMLSchema-instance" xsi:noNamespaceSchemaLocation="http://sumo.dlr.de/xsd/sumoConfiguration.xsd">

    <input>
        <net-file value="straight.net.xml"/>
        <route-files value="straight.rou.xml"/>
    </input>

    <output>
        <netstate-dump value="dump.xml"/>
        <tripinfo-output value="tripinfo.xml"/>
        <tripinfo-output.write-unfinished value="true"/>
    </output>

    <time>
        <begin value="0"/>
        <end value="120"/>
    </time>

    <processing>
        <time-to-teleport value="-1"/>
    </processing>

    <traci_server>
        <remote-port value="50344"/>
    </traci_server>

    <gui_only>
        <quit-on-end value="true"/>
        <start value="true"/>
    </gui_only>

</configuration>
-->

<tripinfos xmlns:xsi="http://www.w3.org/2001/XMLSchema-instance" xsi:noNamespaceSchemaLocation="http://sumo.dlr.de/xsd/tripinfo_file.xsd">
    <tripinfo id="car2" depart="0.00" departLane="E7_1" departPos="161.16" departSpeed="2.72" departDelay="0.00" arrival="17.00" arrivalLane="E7_1" arrivalPos="300.00" arrivalSpeed="13.43" duration="17.00" routeLength="138.84" waitingTime="0.00" waitingCount="0" stopTime="0.00" timeLoss="6.95" rerouteNo="0" devices="tripinfo_car2" vType="passenger1" speedFactor="1.01" vaporized=""/>
    <tripinfo id="car1" depart="0.00" departLane="E7_0" departPos="160.46" departSpeed="2.60" departDelay="0.00" arrival="18.00" arrivalLane="E7_0" arrivalPos="300.00" arrivalSpeed="12.97" duration="18.00" routeLength="139.54" waitingTime="0.00" waitingCount="0" stopTime="0.00" timeLoss="6.44" rerouteNo="0" devices="tripinfo_car1" vType="passenger1" speedFactor="0.94" vaporized=""/>
    <tripinfo id="car7" depart="0.00" departLane="E7_1" departPos="130.24" departSpeed="2.15" departDelay="0.00" arrival="21.00" arrivalLane="E7_1" arrivalPos="300.00" arrivalSpeed="12.27" duration="21.00" routeLength="169.76" waitingTime="0.00" waitingCount="0" stopTime="0.00" timeLoss="6.84" rerouteNo="0" devices="tripinfo_car7" vType="passenger1" speedFactor="0.89" vaporized=""/>
    <tripinfo id="car8" depart="1.00" departLane="E7_0" departPos="128.08" departSpeed="2.52" departDelay="1.00" arrival="22.00" arrivalLane="E7_0" arrivalPos="300.00" arrivalSpeed="12.94" duration="21.00" routeLength="171.92" waitingTime="0.00" waitingCount="0" stopTime="0.00" timeLoss="7.26" rerouteNo="0" devices="tripinfo_car8" vType="passenger1" speedFactor="0.94" vaporized=""/>
    <tripinfo id="car9" depart="1.00" departLane="E7_0" departPos="100.70" departSpeed="2.17" departDelay="1.00" arrival="24.00" arrivalLane="E7_0" arrivalPos="300.00" arrivalSpeed="11.56" duration="23.00" routeLength="199.30" waitingTime="0.00" waitingCount="0" stopTime="0.00" timeLoss="6.00" rerouteNo="0" devices="tripinfo_car9" vType="passenger1" speedFactor="0.86" vaporized=""/>
    <tripinfo id="car0" depart="0.00" departLane="-E6_0" departPos="0.00" departSpeed="0.00" departDelay="0.00" arrival="51.00" arrivalLane="E2_0" arrivalPos="100.00" arrivalSpeed="14.61" duration="51.00" routeLength="500.00" waitingTime="0.00" waitingCount="0" stopTime="0.00" timeLoss="16.36" rerouteNo="0" devices="tripinfo_car0" vType="passenger1" speedFactor="1.06" vaporized=""/>
    <tripinfo id="car5" depart="5.00" departLane="-E6_0" departPos="0.00" departSpeed="0.00" departDelay="5.00" arrival="60.00" arrivalLane="E2_0" arrivalPos="100.00" arrivalSpeed="11.44" duration="55.00" routeLength="500.00" waitingTime="0.00" waitingCount="0" stopTime="0.00" timeLoss="11.18" rerouteNo="0" devices="tripinfo_car5" vType="passenger1" speedFactor="0.83" vaporized=""/>
    <tripinfo id="car6" depart="0.00" departLane="-E7_0" departPos="0.00" departSpeed="0.00" departDelay="0.00" arrival="109.00" arrivalLane="-E0_0" arrivalPos="500.00" arrivalSpeed="14.14" duration="109.00" routeLength="1300.00" waitingTime="0.00" waitingCount="0" stopTime="0.00" timeLoss="18.68" rerouteNo="0" devices="tripinfo_car6" vType="passenger1" speedFactor="1.05" vaporized=""/>
    <tripinfo id="car3" depart="0.00" departLane="E0_0" departPos="0.00" departSpeed="0.00" departDelay="0.00" arrival="-1.00" arrivalLane="" arrivalPos="-1.00" arrivalSpeed="-1.00" duration="120.00" routeLength="685.78" waitingTime="3.00" waitingCount="1" stopTime="0.00" timeLoss="24.00" rerouteNo="0" devices="tripinfo_car3" vType="passenger1" speedFactor="1.08" vaporized="end"/>
    <tripinfo id="car4" depart="5.00" departLane="E0_0" departPos="0.00" departSpeed="0.00" departDelay="5.00" arrival="-1.00" arrivalLane="" arrivalPos="-1.00" arrivalSpeed="-1.00" duration="115.00" routeLength="667.12" waitingTime="0.00" waitingCount="0" stopTime="0.00" timeLoss="20.33" rerouteNo="0" devices="tripinfo_car4" vType="passenger1" speedFactor="1.03" vaporized="end"/>
</tripinfos>
