<?xml version="1.0" encoding="UTF-8"?>

<!-- generated on 2022-08-16 18:20:15 by Eclipse SUMO GUI Version 1.13.0
<configuration xmlns:xsi="http://www.w3.org/2001/XMLSchema-instance" xsi:noNamespaceSchemaLocation="http://sumo.dlr.de/xsd/sumoConfiguration.xsd">

    <input>
        <net-file value="straight.net.xml"/>
        <route-files value="straight.rou.xml"/>
    </input>

    <output>
        <netstate-dump value="dump.xml"/>
        <tripinfo-output value="tripinfo.xml"/>
        <tripinfo-output.write-unfinished value="true"/>
    </output>

    <time>
        <begin value="0"/>
        <end value="101"/>
    </time>

    <processing>
        <time-to-teleport value="-1"/>
    </processing>

    <traci_server>
        <remote-port value="60411"/>
    </traci_server>

    <gui_only>
        <quit-on-end value="true"/>
        <start value="true"/>
    </gui_only>

</configuration>
-->

<tripinfos xmlns:xsi="http://www.w3.org/2001/XMLSchema-instance" xsi:noNamespaceSchemaLocation="http://sumo.dlr.de/xsd/tripinfo_file.xsd">
    <tripinfo id="car3" depart="0.00" departLane="-E0_0" departPos="422.46" departSpeed="14.82" departDelay="0.00" arrival="6.00" arrivalLane="-E0_0" arrivalPos="500.00" arrivalSpeed="14.93" duration="6.00" routeLength="77.54" waitingTime="0.00" waitingCount="0" stopTime="0.00" timeLoss="0.10" rerouteNo="0" devices="tripinfo_car3" vType="passenger1" speedFactor="1.08" vaporized=""/>
    <tripinfo id="car7" depart="0.00" departLane="-E0_0" departPos="189.04" departSpeed="11.94" departDelay="0.00" arrival="26.00" arrivalLane="-E0_0" arrivalPos="500.00" arrivalSpeed="12.11" duration="26.00" routeLength="310.96" waitingTime="0.00" waitingCount="0" stopTime="0.00" timeLoss="0.38" rerouteNo="0" devices="tripinfo_car7" vType="passenger1" speedFactor="0.89" vaporized=""/>
    <tripinfo id="car9" depart="0.00" departLane="-E0_0" departPos="120.09" departSpeed="11.88" departDelay="0.00" arrival="33.00" arrivalLane="-E0_0" arrivalPos="500.00" arrivalSpeed="11.79" duration="33.00" routeLength="379.91" waitingTime="0.00" waitingCount="0" stopTime="0.00" timeLoss="0.51" rerouteNo="0" devices="tripinfo_car9" vType="passenger1" speedFactor="0.86" vaporized=""/>
    <tripinfo id="car1" depart="0.00" departLane="-E6_0" departPos="0.00" departSpeed="0.00" departDelay="0.00" arrival="53.00" arrivalLane="E2_0" arrivalPos="100.00" arrivalSpeed="12.88" duration="53.00" routeLength="500.00" waitingTime="0.00" waitingCount="0" stopTime="0.00" timeLoss="14.21" rerouteNo="0" devices="tripinfo_car1" vType="passenger1" speedFactor="0.94" vaporized=""/>
    <tripinfo id="car2" depart="5.00" departLane="-E6_0" departPos="0.00" departSpeed="0.00" departDelay="5.00" arrival="55.00" arrivalLane="E2_0" arrivalPos="100.00" arrivalSpeed="13.99" duration="50.00" routeLength="500.00" waitingTime="0.00" waitingCount="0" stopTime="0.00" timeLoss="13.92" rerouteNo="0" devices="tripinfo_car2" vType="passenger1" speedFactor="1.01" vaporized=""/>
    <tripinfo id="car5" depart="10.00" departLane="-E6_0" departPos="0.00" departSpeed="0.00" departDelay="10.00" arrival="66.00" arrivalLane="E2_0" arrivalPos="100.00" arrivalSpeed="11.36" duration="56.00" routeLength="500.00" waitingTime="0.00" waitingCount="0" stopTime="0.00" timeLoss="11.81" rerouteNo="0" devices="tripinfo_car5" vType="passenger1" speedFactor="0.83" vaporized=""/>
    <tripinfo id="car0" depart="0.00" departLane="E0_0" departPos="0.00" departSpeed="0.00" departDelay="0.00" arrival="-1.00" arrivalLane="" arrivalPos="-1.00" arrivalSpeed="-1.00" duration="101.00" routeLength="614.09" waitingTime="8.00" waitingCount="1" stopTime="0.00" timeLoss="27.30" rerouteNo="0" devices="tripinfo_car0" vType="passenger1" speedFactor="1.06" vaporized="end"/>
    <tripinfo id="car4" depart="0.00" departLane="-E7_0" departPos="0.00" departSpeed="0.00" departDelay="0.00" arrival="-1.00" arrivalLane="" arrivalPos="-1.00" arrivalSpeed="-1.00" duration="101.00" routeLength="1192.76" waitingTime="0.00" waitingCount="0" stopTime="0.00" timeLoss="16.65" rerouteNo="0" devices="tripinfo_car4" vType="passenger1" speedFactor="1.03" vaporized=""/>
    <tripinfo id="car6" depart="5.00" departLane="E0_0" departPos="0.00" departSpeed="0.00" departDelay="5.00" arrival="-1.00" arrivalLane="" arrivalPos="-1.00" arrivalSpeed="-1.00" duration="96.00" routeLength="600.97" waitingTime="6.00" waitingCount="1" stopTime="0.00" timeLoss="25.43" rerouteNo="0" devices="tripinfo_car6" vType="passenger1" speedFactor="1.05" vaporized="end"/>
    <tripinfo id="car8" depart="0.00" departLane="E12_0" departPos="114.45" departSpeed="2.36" departDelay="0.00" arrival="-1.00" arrivalLane="" arrivalPos="-1.00" arrivalSpeed="-1.00" duration="101.00" routeLength="393.40" waitingTime="0.00" waitingCount="0" stopTime="0.00" timeLoss="13.42" rerouteNo="0" devices="tripinfo_car8" vType="passenger1" speedFactor="0.94" vaporized=""/>
</tripinfos>
